LAMMPS data file. CGCMM style. atom_style full generated by VMD/TopoTools v1.6 on Mon Aug 08 19:28:00 CDT 2022
 512 atoms
 0 bonds
 0 angles
 0 dihedrals
 0 impropers
 1 atom types
 0 bond types
 0 angle types
 0 dihedral types
 0 improper types
 0.003735 25.072535  xlo xhi
 -0.194845 24.873955  ylo yhi
 -0.028463 25.040337  zlo zhi

 Masses

 1 18.015400 #water

 Atoms

1 1 1 0.000000 18.313139 24.535906 20.516483 #  UNK
2 1 1 0.000000 2.474589 0.920216 18.658251 #  UNK
3 1 1 0.000000 5.006475 7.991133 21.153040 #  UNK
4 1 1 0.000000 9.200065 17.223949 20.110617 #  UNK
5 1 1 0.000000 9.221260 22.841621 19.121584 #  UNK
6 1 1 0.000000 10.752622 0.101923 23.753273 #  UNK
7 1 1 0.000000 22.851244 14.329339 8.879567 #  UNK
8 1 1 0.000000 15.461267 0.558195 16.026617 #  UNK
9 1 1 0.000000 6.800832 8.641703 19.269461 #  UNK
10 1 1 0.000000 4.554974 5.504519 20.245628 #  UNK
11 1 1 0.000000 24.784317 1.543884 19.208706 #  UNK
12 1 1 0.000000 2.639581 14.960228 23.097988 #  UNK
13 1 1 0.000000 10.791428 16.572651 2.091168 #  UNK
14 1 1 0.000000 8.982371 3.295625 12.184855 #  UNK
15 1 1 0.000000 20.945595 7.881155 8.700015 #  UNK
16 1 1 0.000000 3.504122 5.915123 8.912575 #  UNK
17 1 1 0.000000 10.793567 20.605083 19.669283 #  UNK
18 1 1 0.000000 1.646947 18.286383 20.886133 #  UNK
19 1 1 0.000000 2.622535 6.523165 0.831218 #  UNK
20 1 1 0.000000 24.740208 14.703950 13.979877 #  UNK
21 1 1 0.000000 0.612573 6.830144 19.806694 #  UNK
22 1 1 0.000000 9.043386 9.405789 4.117366 #  UNK
23 1 1 0.000000 5.182762 21.759460 2.650894 #  UNK
24 1 1 0.000000 24.922348 7.162883 12.009967 #  UNK
25 1 1 0.000000 5.421229 8.265992 12.388762 #  UNK
26 1 1 0.000000 10.675189 21.733061 14.118794 #  UNK
27 1 1 0.000000 17.185707 4.934757 18.161812 #  UNK
28 1 1 0.000000 7.585401 4.019775 19.904083 #  UNK
29 1 1 0.000000 3.990322 23.122055 24.000523 #  UNK
30 1 1 0.000000 21.099710 18.913916 20.788044 #  UNK
31 1 1 0.000000 14.490611 19.554089 15.072417 #  UNK
32 1 1 0.000000 8.332231 11.221739 21.441328 #  UNK
33 1 1 0.000000 6.756685 23.971140 1.632215 #  UNK
34 1 1 0.000000 21.661943 22.251467 8.680869 #  UNK
35 1 1 0.000000 3.736299 24.564812 1.681365 #  UNK
36 1 1 0.000000 20.295166 20.577522 1.062775 #  UNK
37 1 1 0.000000 16.355799 24.500652 9.128995 #  UNK
38 1 1 0.000000 8.427500 4.744679 9.750216 #  UNK
39 1 1 0.000000 13.792917 14.171184 5.476501 #  UNK
40 1 1 0.000000 0.574381 16.722851 23.397200 #  UNK
41 1 1 0.000000 15.686694 3.551965 15.019000 #  UNK
42 1 1 0.000000 14.536099 6.307366 15.837755 #  UNK
43 1 1 0.000000 23.796488 4.604590 11.156734 #  UNK
44 1 1 0.000000 9.277064 18.954157 17.909407 #  UNK
45 1 1 0.000000 12.298067 9.446631 4.475458 #  UNK
46 1 1 0.000000 25.008158 23.462084 4.081502 #  UNK
47 1 1 0.000000 5.682889 24.519945 18.289993 #  UNK
48 1 1 0.000000 21.174572 0.008062 21.161650 #  UNK
49 1 1 0.000000 11.226116 1.756738 2.635998 #  UNK
50 1 1 0.000000 12.402323 9.290600 23.887518 #  UNK
51 1 1 0.000000 9.884504 24.057344 9.557163 #  UNK
52 1 1 0.000000 0.128637 3.523304 21.631523 #  UNK
53 1 1 0.000000 4.910503 18.096111 21.840561 #  UNK
54 1 1 0.000000 8.927879 23.558744 0.246114 #  UNK
55 1 1 0.000000 15.728178 21.896461 9.362229 #  UNK
56 1 1 0.000000 0.530305 20.603510 13.633627 #  UNK
57 1 1 0.000000 4.935314 5.619002 2.224681 #  UNK
58 1 1 0.000000 3.716790 12.973744 12.950184 #  UNK
59 1 1 0.000000 12.753572 18.462078 2.636538 #  UNK
60 1 1 0.000000 16.376554 9.696646 3.360969 #  UNK
61 1 1 0.000000 0.156267 0.232761 8.556236 #  UNK
62 1 1 0.000000 15.227516 10.276883 16.983505 #  UNK
63 1 1 0.000000 21.592756 4.519503 2.673311 #  UNK
64 1 1 0.000000 13.680905 19.445185 24.997601 #  UNK
65 1 1 0.000000 6.727746 10.780766 4.697209 #  UNK
66 1 1 0.000000 15.378366 19.281700 3.479900 #  UNK
67 1 1 0.000000 11.534144 21.942751 6.059675 #  UNK
68 1 1 0.000000 12.027105 22.179201 2.958425 #  UNK
69 1 1 0.000000 6.176033 4.060982 23.023478 #  UNK
70 1 1 0.000000 17.309082 6.623346 14.944572 #  UNK
71 1 1 0.000000 1.633794 18.561861 16.342201 #  UNK
72 1 1 0.000000 17.580650 18.854691 19.231117 #  UNK
73 1 1 0.000000 25.021175 11.851694 13.152050 #  UNK
74 1 1 0.000000 22.482689 9.858335 20.312939 #  UNK
75 1 1 0.000000 20.169172 13.250484 19.556217 #  UNK
76 1 1 0.000000 11.668834 15.613422 9.291699 #  UNK
77 1 1 0.000000 24.085754 14.414451 1.476142 #  UNK
78 1 1 0.000000 21.274628 17.034489 8.477654 #  UNK
79 1 1 0.000000 11.063011 10.008056 1.733387 #  UNK
80 1 1 0.000000 19.716084 19.289667 8.932734 #  UNK
81 1 1 0.000000 23.805540 12.297440 22.758606 #  UNK
82 1 1 0.000000 0.936864 9.148641 7.740386 #  UNK
83 1 1 0.000000 22.061350 0.280734 13.411017 #  UNK
84 1 1 0.000000 5.210434 9.656774 23.160299 #  UNK
85 1 1 0.000000 18.790590 15.285995 16.240789 #  UNK
86 1 1 0.000000 19.667267 6.304532 17.901434 #  UNK
87 1 1 0.000000 12.657322 23.890656 16.866554 #  UNK
88 1 1 0.000000 0.241245 0.901694 24.956924 #  UNK
89 1 1 0.000000 9.948345 13.376211 16.032389 #  UNK
90 1 1 0.000000 22.235083 10.570955 12.977617 #  UNK
91 1 1 0.000000 7.641227 13.259356 18.191177 #  UNK
92 1 1 0.000000 9.030805 5.323418 17.001240 #  UNK
93 1 1 0.000000 17.203190 4.256091 24.573389 #  UNK
94 1 1 0.000000 5.112138 15.864867 14.011194 #  UNK
95 1 1 0.000000 23.637812 1.396380 16.552238 #  UNK
96 1 1 0.000000 22.034639 21.377161 3.941082 #  UNK
97 1 1 0.000000 17.057577 4.018741 4.372563 #  UNK
98 1 1 0.000000 10.010319 6.822638 8.303290 #  UNK
99 1 1 0.000000 13.571639 23.542372 14.233216 #  UNK
100 1 1 0.000000 8.890462 20.907156 1.096383 #  UNK
101 1 1 0.000000 13.299422 15.220372 2.044380 #  UNK
102 1 1 0.000000 12.726522 17.500061 6.388761 #  UNK
103 1 1 0.000000 11.381428 14.095856 20.415773 #  UNK
104 1 1 0.000000 25.009075 21.896526 24.115410 #  UNK
105 1 1 0.000000 7.215969 10.889873 24.736721 #  UNK
106 1 1 0.000000 9.082593 15.788472 4.223579 #  UNK
107 1 1 0.000000 3.420364 11.084450 1.718887 #  UNK
108 1 1 0.000000 7.792819 4.913414 14.120311 #  UNK
109 1 1 0.000000 19.978823 11.934850 23.325663 #  UNK
110 1 1 0.000000 0.845923 20.386915 6.788404 #  UNK
111 1 1 0.000000 0.496641 17.502350 7.553542 #  UNK
112 1 1 0.000000 8.217074 15.226428 0.942326 #  UNK
113 1 1 0.000000 22.573872 5.608450 9.011611 #  UNK
114 1 1 0.000000 7.027929 7.036549 0.000971 #  UNK
115 1 1 0.000000 4.832119 10.731411 10.727616 #  UNK
116 1 1 0.000000 6.623442 18.180407 17.412312 #  UNK
117 1 1 0.000000 10.794656 15.472156 18.404728 #  UNK
118 1 1 0.000000 21.392590 6.965821 15.765567 #  UNK
119 1 1 0.000000 19.638128 5.070047 11.808084 #  UNK
120 1 1 0.000000 2.324978 13.944867 2.414293 #  UNK
121 1 1 0.000000 5.535044 19.767651 19.929268 #  UNK
122 1 1 0.000000 21.443417 15.722217 12.186723 #  UNK
123 1 1 0.000000 14.865983 12.292656 18.718178 #  UNK
124 1 1 0.000000 14.527377 0.983629 10.549709 #  UNK
125 1 1 0.000000 23.664589 5.146821 24.313545 #  UNK
126 1 1 0.000000 1.599331 1.534079 3.264869 #  UNK
127 1 1 0.000000 0.678081 12.231900 20.144190 #  UNK
128 1 1 0.000000 23.446394 7.900465 24.996305 #  UNK
129 1 1 0.000000 2.515372 18.245516 9.319694 #  UNK
130 1 1 0.000000 18.968433 2.036558 17.959333 #  UNK
131 1 1 0.000000 22.437344 24.192083 15.882610 #  UNK
132 1 1 0.000000 17.173134 13.633828 19.311562 #  UNK
133 1 1 0.000000 23.846893 5.659899 21.406099 #  UNK
134 1 1 0.000000 19.424761 1.346119 5.274991 #  UNK
135 1 1 0.000000 19.395710 21.967321 6.817179 #  UNK
136 1 1 0.000000 16.983206 6.594931 21.948345 #  UNK
137 1 1 0.000000 0.283607 11.703327 10.222044 #  UNK
138 1 1 0.000000 15.008323 22.651556 0.653078 #  UNK
139 1 1 0.000000 8.498980 5.645784 22.085266 #  UNK
140 1 1 0.000000 18.189079 14.578816 6.625799 #  UNK
141 1 1 0.000000 4.715081 15.561845 9.928500 #  UNK
142 1 1 0.000000 18.846979 0.207899 9.174864 #  UNK
143 1 1 0.000000 15.273428 15.373261 16.043737 #  UNK
144 1 1 0.000000 17.186762 19.996206 8.020027 #  UNK
145 1 1 0.000000 8.306772 18.494955 5.256141 #  UNK
146 1 1 0.000000 24.682812 4.680041 18.688845 #  UNK
147 1 1 0.000000 14.509961 11.512394 4.686210 #  UNK
148 1 1 0.000000 19.623299 17.492889 22.614971 #  UNK
149 1 1 0.000000 16.389540 0.908658 12.891611 #  UNK
150 1 1 0.000000 12.060133 19.204956 8.907169 #  UNK
151 1 1 0.000000 12.361933 9.036205 16.953150 #  UNK
152 1 1 0.000000 3.335712 19.562822 18.337378 #  UNK
153 1 1 0.000000 11.016784 16.474222 12.048028 #  UNK
154 1 1 0.000000 16.901989 5.684683 9.573623 #  UNK
155 1 1 0.000000 5.334980 19.232800 14.893505 #  UNK
156 1 1 0.000000 11.862184 18.849365 22.999256 #  UNK
157 1 1 0.000000 24.325872 15.455961 11.226500 #  UNK
158 1 1 0.000000 2.666893 3.806707 20.432444 #  UNK
159 1 1 0.000000 11.080161 1.407291 5.243569 #  UNK
160 1 1 0.000000 21.930344 2.892768 12.546355 #  UNK
161 1 1 0.000000 20.557722 18.018999 15.826034 #  UNK
162 1 1 0.000000 21.901554 10.771789 3.204212 #  UNK
163 1 1 0.000000 18.611988 12.102689 13.056100 #  UNK
164 1 1 0.000000 15.155334 12.059916 22.961422 #  UNK
165 1 1 0.000000 5.250621 5.772325 13.637667 #  UNK
166 1 1 0.000000 2.056938 9.742303 10.242967 #  UNK
167 1 1 0.000000 4.801536 19.992001 8.109758 #  UNK
168 1 1 0.000000 11.408084 4.876665 15.762506 #  UNK
169 1 1 0.000000 8.772408 1.640784 19.346828 #  UNK
170 1 1 0.000000 10.384349 11.637439 19.776844 #  UNK
171 1 1 0.000000 12.896589 22.625450 19.982073 #  UNK
172 1 1 0.000000 6.904996 1.592690 2.224071 #  UNK
173 1 1 0.000000 0.631622 3.304244 16.669498 #  UNK
174 1 1 0.000000 9.062006 3.465912 2.800405 #  UNK
175 1 1 0.000000 0.916093 14.229745 18.245367 #  UNK
176 1 1 0.000000 3.795037 1.446210 6.021929 #  UNK
177 1 1 0.000000 11.449911 2.726844 11.039756 #  UNK
178 1 1 0.000000 18.320366 21.573345 18.216227 #  UNK
179 1 1 0.000000 15.431622 15.701777 9.296685 #  UNK
180 1 1 0.000000 13.028216 6.462450 22.736023 #  UNK
181 1 1 0.000000 14.553628 4.353720 21.856417 #  UNK
182 1 1 0.000000 8.853292 9.272201 7.982077 #  UNK
183 1 1 0.000000 6.557048 3.122352 16.282677 #  UNK
184 1 1 0.000000 5.952491 15.719072 7.321402 #  UNK
185 1 1 0.000000 24.021845 21.448784 1.807786 #  UNK
186 1 1 0.000000 2.950448 15.249972 19.892889 #  UNK
187 1 1 0.000000 10.097905 24.289249 6.661386 #  UNK
188 1 1 0.000000 3.550179 11.942166 20.215834 #  UNK
189 1 1 0.000000 21.624216 3.432860 17.336212 #  UNK
190 1 1 0.000000 19.170195 23.730267 15.180944 #  UNK
191 1 1 0.000000 13.311045 16.030144 21.703011 #  UNK
192 1 1 0.000000 9.585382 1.727077 8.317750 #  UNK
193 1 1 0.000000 8.959317 24.595402 21.243868 #  UNK
194 1 1 0.000000 9.155683 8.543775 20.745417 #  UNK
195 1 1 0.000000 1.591391 9.260173 2.657413 #  UNK
196 1 1 0.000000 21.440977 14.463561 22.030756 #  UNK
197 1 1 0.000000 17.019810 21.459005 11.799767 #  UNK
198 1 1 0.000000 16.353024 15.766800 12.303100 #  UNK
199 1 1 0.000000 19.682060 20.467812 4.640933 #  UNK
200 1 1 0.000000 24.230865 18.382406 11.492105 #  UNK
201 1 1 0.000000 13.289361 19.112978 18.713211 #  UNK
202 1 1 0.000000 11.120194 7.190381 2.648868 #  UNK
203 1 1 0.000000 18.996151 16.488028 11.356722 #  UNK
204 1 1 0.000000 18.361399 14.322017 2.391678 #  UNK
205 1 1 0.000000 21.631323 17.500238 2.074626 #  UNK
206 1 1 0.000000 17.718506 17.495440 1.646182 #  UNK
207 1 1 0.000000 3.351142 18.344128 1.630455 #  UNK
208 1 1 0.000000 3.168801 23.561359 12.385584 #  UNK
209 1 1 0.000000 5.132699 14.410278 24.609770 #  UNK
210 1 1 0.000000 21.747507 13.424344 2.375634 #  UNK
211 1 1 0.000000 20.385399 8.250790 20.770477 #  UNK
212 1 1 0.000000 14.454900 24.645061 20.910395 #  UNK
213 1 1 0.000000 8.484815 14.779611 20.423672 #  UNK
214 1 1 0.000000 12.349361 24.434742 1.004811 #  UNK
215 1 1 0.000000 19.157539 9.155575 3.998285 #  UNK
216 1 1 0.000000 16.182306 10.754961 7.412685 #  UNK
217 1 1 0.000000 14.947056 7.841263 23.995544 #  UNK
218 1 1 0.000000 21.839928 5.826587 5.796979 #  UNK
219 1 1 0.000000 7.538402 19.891382 13.096761 #  UNK
220 1 1 0.000000 2.217216 14.691873 7.337800 #  UNK
221 1 1 0.000000 3.231497 7.315504 3.738908 #  UNK
222 1 1 0.000000 17.878994 9.281699 17.519073 #  UNK
223 1 1 0.000000 4.093214 15.068961 17.475035 #  UNK
224 1 1 0.000000 17.182016 16.272022 18.163345 #  UNK
225 1 1 0.000000 20.099062 24.498003 17.758511 #  UNK
226 1 1 0.000000 22.561350 21.632128 14.698533 #  UNK
227 1 1 0.000000 5.487760 24.470293 15.757144 #  UNK
228 1 1 0.000000 19.422184 8.506434 14.218406 #  UNK
229 1 1 0.000000 8.699669 7.081512 5.644413 #  UNK
230 1 1 0.000000 14.140394 0.948046 5.363996 #  UNK
231 1 1 0.000000 24.279388 9.698957 23.182295 #  UNK
232 1 1 0.000000 23.192755 24.227699 6.505592 #  UNK
233 1 1 0.000000 7.614799 3.203315 6.780203 #  UNK
234 1 1 0.000000 18.775377 22.759161 3.064785 #  UNK
235 1 1 0.000000 8.738207 20.884382 16.031157 #  UNK
236 1 1 0.000000 1.645817 4.462096 24.209034 #  UNK
237 1 1 0.000000 18.121767 16.335077 4.511219 #  UNK
238 1 1 0.000000 25.064188 2.019083 13.571461 #  UNK
239 1 1 0.000000 20.183140 24.530872 6.917379 #  UNK
240 1 1 0.000000 3.843942 23.617399 6.291110 #  UNK
241 1 1 0.000000 15.576423 7.714573 1.562097 #  UNK
242 1 1 0.000000 1.790509 17.593555 11.823456 #  UNK
243 1 1 0.000000 8.017066 23.667583 16.251604 #  UNK
244 1 1 0.000000 2.606854 21.098473 1.785246 #  UNK
245 1 1 0.000000 3.198001 3.397003 17.566034 #  UNK
246 1 1 0.000000 9.373370 12.133550 13.440228 #  UNK
247 1 1 0.000000 8.638790 1.214134 16.294395 #  UNK
248 1 1 0.000000 15.473794 6.863750 18.718250 #  UNK
249 1 1 0.000000 19.205006 19.929529 23.808422 #  UNK
250 1 1 0.000000 10.411394 5.103798 19.566883 #  UNK
251 1 1 0.000000 3.777265 22.452679 21.357346 #  UNK
252 1 1 0.000000 23.726027 21.129766 11.443411 #  UNK
253 1 1 0.000000 7.136291 19.830456 3.081089 #  UNK
254 1 1 0.000000 17.557611 5.900548 1.970133 #  UNK
255 1 1 0.000000 22.844095 24.327242 10.172113 #  UNK
256 1 1 0.000000 5.439512 0.489631 12.011750 #  UNK
257 1 1 0.000000 16.726923 1.277413 22.113960 #  UNK
258 1 1 0.000000 20.499733 17.750271 4.487294 #  UNK
259 1 1 0.000000 6.311615 13.244255 10.035097 #  UNK
260 1 1 0.000000 7.207627 7.969639 16.682165 #  UNK
261 1 1 0.000000 17.521206 3.365133 20.289612 #  UNK
262 1 1 0.000000 13.845278 5.787625 2.141268 #  UNK
263 1 1 0.000000 6.903771 21.279039 18.254612 #  UNK
264 1 1 0.000000 16.670889 23.618294 18.382517 #  UNK
265 1 1 0.000000 19.730822 7.468210 6.324939 #  UNK
266 1 1 0.000000 18.596945 24.556860 24.500616 #  UNK
267 1 1 0.000000 20.829910 22.503988 19.741539 #  UNK
268 1 1 0.000000 14.295099 10.365422 12.904256 #  UNK
269 1 1 0.000000 13.524112 7.942887 7.270204 #  UNK
270 1 1 0.000000 4.394444 1.901245 8.798104 #  UNK
271 1 1 0.000000 9.950728 24.163656 2.696910 #  UNK
272 1 1 0.000000 20.242018 2.954347 23.060022 #  UNK
273 1 1 0.000000 5.600943 3.425343 0.484070 #  UNK
274 1 1 0.000000 24.577772 24.219040 12.893061 #  UNK
275 1 1 0.000000 17.573101 14.529878 22.732218 #  UNK
276 1 1 0.000000 18.105955 10.526607 24.981276 #  UNK
277 1 1 0.000000 19.840689 2.429511 2.903217 #  UNK
278 1 1 0.000000 5.882878 22.450661 5.201582 #  UNK
279 1 1 0.000000 13.403439 12.408588 10.014607 #  UNK
280 1 1 0.000000 13.694495 1.781231 1.559201 #  UNK
281 1 1 0.000000 13.087678 3.317197 6.210845 #  UNK
282 1 1 0.000000 19.142784 10.944461 15.786333 #  UNK
283 1 1 0.000000 12.061322 0.648877 12.960089 #  UNK
284 1 1 0.000000 6.399220 16.961172 3.141136 #  UNK
285 1 1 0.000000 9.802065 16.169582 15.629283 #  UNK
286 1 1 0.000000 15.524106 2.790092 17.980043 #  UNK
287 1 1 0.000000 20.226950 18.527899 13.070761 #  UNK
288 1 1 0.000000 8.251447 10.056094 15.050672 #  UNK
289 1 1 0.000000 23.289183 2.506456 0.865053 #  UNK
290 1 1 0.000000 6.344449 24.403429 22.059101 #  UNK
291 1 1 0.000000 11.742255 11.732261 17.319750 #  UNK
292 1 1 0.000000 9.892280 4.402344 5.199468 #  UNK
293 1 1 0.000000 8.027769 17.691772 11.098611 #  UNK
294 1 1 0.000000 1.564190 21.553885 11.226316 #  UNK
295 1 1 0.000000 14.672389 10.534278 20.853523 #  UNK
296 1 1 0.000000 10.918777 10.528217 9.456897 #  UNK
297 1 1 0.000000 5.770278 2.663669 4.429322 #  UNK
298 1 1 0.000000 10.460245 19.875078 12.200133 #  UNK
299 1 1 0.000000 1.036689 11.171678 25.010902 #  UNK
300 1 1 0.000000 2.172987 21.554443 17.011473 #  UNK
301 1 1 0.000000 14.072822 0.473628 23.524578 #  UNK
302 1 1 0.000000 3.277625 23.444340 18.624483 #  UNK
303 1 1 0.000000 19.819567 11.671522 7.827465 #  UNK
304 1 1 0.000000 24.059757 3.818924 3.657219 #  UNK
305 1 1 0.000000 6.477926 18.747072 24.608576 #  UNK
306 1 1 0.000000 9.438013 8.987233 24.770700 #  UNK
307 1 1 0.000000 1.817268 17.221750 5.108843 #  UNK
308 1 1 0.000000 2.616917 0.612535 23.651655 #  UNK
309 1 1 0.000000 0.656549 14.642734 4.866624 #  UNK
310 1 1 0.000000 6.249523 7.830407 9.139112 #  UNK
311 1 1 0.000000 6.949961 13.184594 12.704455 #  UNK
312 1 1 0.000000 21.062979 23.118738 0.042438 #  UNK
313 1 1 0.000000 5.656852 11.095944 18.670334 #  UNK
314 1 1 0.000000 13.955295 14.745889 11.979222 #  UNK
315 1 1 0.000000 23.904194 7.240447 4.613054 #  UNK
316 1 1 0.000000 20.097839 16.486300 0.200376 #  UNK
317 1 1 0.000000 14.065572 23.407063 5.240483 #  UNK
318 1 1 0.000000 7.913003 6.924461 11.400228 #  UNK
319 1 1 0.000000 21.703884 1.717315 8.710485 #  UNK
320 1 1 0.000000 23.681721 3.885639 6.332786 #  UNK
321 1 1 0.000000 0.964654 23.866051 1.692689 #  UNK
322 1 1 0.000000 14.435962 4.032631 0.102696 #  UNK
323 1 1 0.000000 13.975406 4.886751 12.617011 #  UNK
324 1 1 0.000000 14.498960 12.088083 14.946584 #  UNK
325 1 1 0.000000 16.278021 19.973099 0.775190 #  UNK
326 1 1 0.000000 8.582450 15.677383 13.010989 #  UNK
327 1 1 0.000000 2.515410 21.880301 8.379905 #  UNK
328 1 1 0.000000 4.888542 8.322556 15.464400 #  UNK
329 1 1 0.000000 4.610030 19.981394 10.903433 #  UNK
330 1 1 0.000000 16.268410 9.566296 9.836080 #  UNK
331 1 1 0.000000 12.285794 6.694482 5.008042 #  UNK
332 1 1 0.000000 19.406105 21.968044 13.133717 #  UNK
333 1 1 0.000000 12.078411 3.487508 18.440989 #  UNK
334 1 1 0.000000 14.784150 14.917611 23.643438 #  UNK
335 1 1 0.000000 6.954037 18.316816 7.585491 #  UNK
336 1 1 0.000000 2.784995 17.472473 14.276511 #  UNK
337 1 1 0.000000 8.170275 24.255562 4.825737 #  UNK
338 1 1 0.000000 9.307734 5.326499 0.307238 #  UNK
339 1 1 0.000000 23.524355 21.501917 6.254011 #  UNK
340 1 1 0.000000 23.263201 10.065265 8.101984 #  UNK
341 1 1 0.000000 13.735911 21.368668 7.521144 #  UNK
342 1 1 0.000000 17.227367 14.154422 14.200460 #  UNK
343 1 1 0.000000 24.419390 7.602155 14.798878 #  UNK
344 1 1 0.000000 9.769235 8.211910 13.089517 #  UNK
345 1 1 0.000000 9.238253 17.718889 24.936003 #  UNK
346 1 1 0.000000 23.692450 18.833799 1.237346 #  UNK
347 1 1 0.000000 23.636805 14.874061 23.951866 #  UNK
348 1 1 0.000000 16.744606 23.015594 13.882790 #  UNK
349 1 1 0.000000 5.979245 4.184748 8.933353 #  UNK
350 1 1 0.000000 20.381498 16.060583 20.137934 #  UNK
351 1 1 0.000000 4.372303 10.759973 7.726303 #  UNK
352 1 1 0.000000 21.209299 13.052372 13.182966 #  UNK
353 1 1 0.000000 21.526350 11.909451 16.435434 #  UNK
354 1 1 0.000000 16.548916 3.454949 7.604857 #  UNK
355 1 1 0.000000 1.363971 21.106361 4.116767 #  UNK
356 1 1 0.000000 16.599556 1.062755 6.434394 #  UNK
357 1 1 0.000000 16.258728 23.498417 23.469589 #  UNK
358 1 1 0.000000 19.548628 4.873727 21.373617 #  UNK
359 1 1 0.000000 17.508995 17.229494 8.344470 #  UNK
360 1 1 0.000000 15.642077 13.497461 7.544911 #  UNK
361 1 1 0.000000 18.941055 10.638549 10.794955 #  UNK
362 1 1 0.000000 13.765227 2.289462 20.234955 #  UNK
363 1 1 0.000000 13.812144 8.664905 10.063877 #  UNK
364 1 1 0.000000 15.965144 1.515843 2.882551 #  UNK
365 1 1 0.000000 0.703660 16.911289 1.375368 #  UNK
366 1 1 0.000000 5.579180 15.692200 20.918673 #  UNK
367 1 1 0.000000 12.398200 23.684023 10.789599 #  UNK
368 1 1 0.000000 21.256710 7.086941 12.605216 #  UNK
369 1 1 0.000000 12.576651 11.458755 7.474237 #  UNK
370 1 1 0.000000 16.613338 16.851933 21.771912 #  UNK
371 1 1 0.000000 3.213368 9.009074 24.877728 #  UNK
372 1 1 0.000000 12.069467 2.477711 23.183701 #  UNK
373 1 1 0.000000 4.083674 8.114739 7.211652 #  UNK
374 1 1 0.000000 21.696533 22.815765 12.228100 #  UNK
375 1 1 0.000000 6.629873 22.054489 11.377150 #  UNK
376 1 1 0.000000 0.440424 16.886238 18.659178 #  UNK
377 1 1 0.000000 2.694566 3.251314 11.132633 #  UNK
378 1 1 0.000000 21.690622 5.325942 19.558384 #  UNK
379 1 1 0.000000 3.633432 6.019783 11.525906 #  UNK
380 1 1 0.000000 5.883903 11.904628 2.091469 #  UNK
381 1 1 0.000000 19.353155 1.564286 13.657478 #  UNK
382 1 1 0.000000 5.637002 3.485277 12.000661 #  UNK
383 1 1 0.000000 10.663122 6.967532 23.523300 #  UNK
384 1 1 0.000000 23.215988 14.216311 16.242695 #  UNK
385 1 1 0.000000 23.240017 8.951969 10.787858 #  UNK
386 1 1 0.000000 19.206745 3.898703 6.268048 #  UNK
387 1 1 0.000000 5.699134 11.293355 14.243883 #  UNK
388 1 1 0.000000 1.254508 24.671047 6.154887 #  UNK
389 1 1 0.000000 13.597594 7.998497 20.305355 #  UNK
390 1 1 0.000000 24.358725 3.011200 8.776690 #  UNK
391 1 1 0.000000 1.483949 21.079535 22.128796 #  UNK
392 1 1 0.000000 16.804977 8.990266 20.439629 #  UNK
393 1 1 0.000000 24.756353 22.326921 9.312124 #  UNK
394 1 1 0.000000 22.338795 24.191410 3.972693 #  UNK
395 1 1 0.000000 3.036814 2.405496 0.563974 #  UNK
396 1 1 0.000000 14.992872 16.927290 0.818128 #  UNK
397 1 1 0.000000 6.733621 21.372746 21.798100 #  UNK
398 1 1 0.000000 23.303406 20.658855 21.869045 #  UNK
399 1 1 0.000000 13.875211 21.595787 11.737211 #  UNK
400 1 1 0.000000 14.260289 5.813162 10.079039 #  UNK
401 1 1 0.000000 7.701609 17.412134 22.493227 #  UNK
402 1 1 0.000000 22.782284 12.520400 19.732183 #  UNK
403 1 1 0.000000 16.065849 19.286667 22.764423 #  UNK
404 1 1 0.000000 20.830395 4.522493 15.008127 #  UNK
405 1 1 0.000000 14.516950 5.035701 4.654515 #  UNK
406 1 1 0.000000 2.288682 3.470216 13.842944 #  UNK
407 1 1 0.000000 11.264356 7.756295 18.967911 #  UNK
408 1 1 0.000000 9.159321 19.822454 22.462465 #  UNK
409 1 1 0.000000 13.153411 14.164773 17.398745 #  UNK
410 1 1 0.000000 0.248135 12.071356 2.334419 #  UNK
411 1 1 0.000000 10.981833 11.364722 22.806101 #  UNK
412 1 1 0.000000 23.331818 18.868372 14.182323 #  UNK
413 1 1 0.000000 11.811128 7.329700 14.915250 #  UNK
414 1 1 0.000000 8.434701 0.623136 11.422111 #  UNK
415 1 1 0.000000 5.936914 21.629061 15.541017 #  UNK
416 1 1 0.000000 11.554995 17.986055 16.522583 #  UNK
417 1 1 0.000000 11.186794 19.483284 4.965707 #  UNK
418 1 1 0.000000 16.898155 20.985361 15.817616 #  UNK
419 1 1 0.000000 9.156817 21.569012 9.956068 #  UNK
420 1 1 0.000000 1.913461 15.117328 11.110511 #  UNK
421 1 1 0.000000 4.307459 11.967383 16.499573 #  UNK
422 1 1 0.000000 16.255383 23.988899 3.613907 #  UNK
423 1 1 0.000000 4.997173 14.535539 2.218317 #  UNK
424 1 1 0.000000 15.331411 10.614864 0.871734 #  UNK
425 1 1 0.000000 1.441577 3.155416 5.707987 #  UNK
426 1 1 0.000000 5.868252 8.162458 5.291339 #  UNK
427 1 1 0.000000 18.387627 3.165767 15.493956 #  UNK
428 1 1 0.000000 1.272169 10.716128 5.411058 #  UNK
429 1 1 0.000000 4.085093 2.590414 22.332571 #  UNK
430 1 1 0.000000 11.083561 13.664072 5.981144 #  UNK
431 1 1 0.000000 3.193752 12.982378 5.396996 #  UNK
432 1 1 0.000000 16.036301 11.999694 11.127649 #  UNK
433 1 1 0.000000 23.186928 18.697041 18.961622 #  UNK
434 1 1 0.000000 0.152039 9.584906 19.697945 #  UNK
435 1 1 0.000000 18.962505 10.561550 19.779150 #  UNK
436 1 1 0.000000 18.682966 1.932061 0.473201 #  UNK
437 1 1 0.000000 1.348408 6.757740 6.255815 #  UNK
438 1 1 0.000000 1.885186 8.848745 22.442305 #  UNK
439 1 1 0.000000 2.739882 6.630260 17.866127 #  UNK
440 1 1 0.000000 23.065872 17.365767 16.689156 #  UNK
441 1 1 0.000000 11.437483 1.585549 16.724304 #  UNK
442 1 1 0.000000 23.656033 12.095345 5.816000 #  UNK
443 1 1 0.000000 18.705328 7.629850 10.182512 #  UNK
444 1 1 0.000000 4.595223 1.144552 20.173302 #  UNK
445 1 1 0.000000 20.501179 4.121838 9.546728 #  UNK
446 1 1 0.000000 11.467600 12.866400 12.057489 #  UNK
447 1 1 0.000000 7.552511 14.833811 23.357771 #  UNK
448 1 1 0.000000 13.921306 17.665695 10.198052 #  UNK
449 1 1 0.000000 5.385503 17.532633 11.922633 #  UNK
450 1 1 0.000000 3.973740 17.035189 24.534000 #  UNK
451 1 1 0.000000 13.948289 7.630185 13.226838 #  UNK
452 1 1 0.000000 14.822917 16.806177 19.361895 #  UNK
453 1 1 0.000000 22.943832 2.426673 22.747255 #  UNK
454 1 1 0.000000 23.611305 10.321454 15.990239 #  UNK
455 1 1 0.000000 9.562580 24.601139 13.746433 #  UNK
456 1 1 0.000000 22.312267 19.666639 24.032806 #  UNK
457 1 1 0.000000 4.179401 16.268612 4.758986 #  UNK
458 1 1 0.000000 2.252082 9.382012 15.906894 #  UNK
459 1 1 0.000000 7.368720 6.667394 2.868317 #  UNK
460 1 1 0.000000 20.279795 7.214807 2.313782 #  UNK
461 1 1 0.000000 20.953487 14.014594 6.716134 #  UNK
462 1 1 0.000000 1.313103 5.772622 15.398078 #  UNK
463 1 1 0.000000 4.132678 12.344234 23.136711 #  UNK
464 1 1 0.000000 21.995266 12.275495 10.126218 #  UNK
465 1 1 0.000000 9.466937 19.005533 8.973125 #  UNK
466 1 1 0.000000 10.076235 16.336205 7.224745 #  UNK
467 1 1 0.000000 21.360312 0.705246 0.241180 #  UNK
468 1 1 0.000000 8.677838 10.747472 17.594589 #  UNK
469 1 1 0.000000 22.488588 9.358633 5.541781 #  UNK
470 1 1 0.000000 0.979630 11.878551 15.745267 #  UNK
471 1 1 0.000000 8.892059 12.541150 7.193875 #  UNK
472 1 1 0.000000 10.104095 13.723405 24.506357 #  UNK
473 1 1 0.000000 17.070694 4.881997 12.707395 #  UNK
474 1 1 0.000000 6.394476 13.256156 6.251574 #  UNK
475 1 1 0.000000 2.466719 14.295145 15.378328 #  UNK
476 1 1 0.000000 23.715372 24.210533 19.802744 #  UNK
477 1 1 0.000000 22.260271 18.673845 6.443888 #  UNK
478 1 1 0.000000 4.387707 2.033055 14.803617 #  UNK
479 1 1 0.000000 25.020987 13.255145 7.922035 #  UNK
480 1 1 0.000000 15.270444 21.210266 19.110416 #  UNK
481 1 1 0.000000 0.091528 5.923476 2.059311 #  UNK
482 1 1 0.000000 19.346189 7.218286 23.063684 #  UNK
483 1 1 0.000000 12.823017 2.715466 14.543334 #  UNK
484 1 1 0.000000 13.974811 3.350963 8.924905 #  UNK
485 1 1 0.000000 0.503813 23.398106 15.441283 #  UNK
486 1 1 0.000000 11.177011 4.190649 7.796870 #  UNK
487 1 1 0.000000 15.741484 13.144039 2.445900 #  UNK
488 1 1 0.000000 12.538039 12.474805 1.252870 #  UNK
489 1 1 0.000000 22.815172 14.813994 4.665433 #  UNK
490 1 1 0.000000 17.323383 19.057823 13.276895 #  UNK
491 1 1 0.000000 6.999804 15.589383 16.330322 #  UNK
492 1 1 0.000000 2.143846 8.877696 12.883272 #  UNK
493 1 1 0.000000 12.194439 14.926617 14.064439 #  UNK
494 1 1 0.000000 9.702391 13.494544 9.561511 #  UNK
495 1 1 0.000000 0.012082 20.275824 19.821146 #  UNK
496 1 1 0.000000 11.752028 9.704261 11.884727 #  UNK
497 1 1 0.000000 24.127018 24.127722 22.682129 #  UNK
498 1 1 0.000000 23.763733 9.041150 2.650826 #  UNK
499 1 1 0.000000 21.704266 21.047722 17.580572 #  UNK
500 1 1 0.000000 19.294065 14.030856 24.815022 #  UNK
501 1 1 0.000000 1.309259 4.635770 7.928474 #  UNK
502 1 1 0.000000 12.218095 21.058262 16.385834 #  UNK
503 1 1 0.000000 2.103992 0.129088 14.213244 #  UNK
504 1 1 0.000000 13.278889 18.870399 12.716906 #  UNK
505 1 1 0.000000 14.744800 19.273699 6.273879 #  UNK
506 1 1 0.000000 11.327705 5.653654 10.833940 #  UNK
507 1 1 0.000000 2.601357 0.357303 9.916121 #  UNK
508 1 1 0.000000 19.303217 22.086126 22.023739 #  UNK
509 1 1 0.000000 24.190567 22.495693 17.770956 #  UNK
510 1 1 0.000000 13.772127 20.872677 22.329706 #  UNK
511 1 1 0.000000 11.234400 16.134655 23.456629 #  UNK
512 1 1 0.000000 4.817685 6.378886 23.623676 #  UNK
